REMARK  8 active torsions:
REMARK  status: ('A' for Active; 'I' for Inactive)
REMARK    1  A    between atoms: O_16  and  C_25 
REMARK    2  A    between atoms: C_18  and  C_19 
REMARK    3  A    between atoms: C_18  and  C_20 
REMARK    4  A    between atoms: C_19  and  C_21 
REMARK    5  A    between atoms: C_20  and  C_22 
REMARK    6  A    between atoms: C_21  and  C_23 
REMARK    7  A    between atoms: C_22  and  C_24 
REMARK    8  A    between atoms: C_23  and  C_25 
ROOT
HETATM    1  F   UNL     1      -1.054   1.948  -0.201  1.00  0.00    -0.192 F 
HETATM    2  F   UNL     1       0.543   1.258  -1.502  1.00  0.00    -0.192 F 
HETATM    3  C   UNL     1      -0.291   0.860  -0.511  1.00  0.00     0.384 C 
ENDROOT
BRANCH   3   4
HETATM    4  C   UNL     1       0.531   0.526   0.727  1.00  0.00     0.385 C 
HETATM    5  F   UNL     1       1.222   1.649   1.078  1.00  0.00    -0.192 F 
HETATM    6  F   UNL     1      -0.333   0.293   1.758  1.00  0.00    -0.192 F 
BRANCH   4   7
HETATM    7  C   UNL     1       1.506  -0.643   0.678  1.00  0.00     0.388 C 
HETATM    8  F   UNL     1       2.067  -0.762   1.917  1.00  0.00    -0.192 F 
HETATM    9  F   UNL     1       0.805  -1.794   0.487  1.00  0.00    -0.192 F 
BRANCH   7  10
HETATM   10  C   UNL     1       2.630  -0.597  -0.348  1.00  0.00     0.396 C 
HETATM   11  F   UNL     1       2.105  -0.612  -1.601  1.00  0.00    -0.187 F 
HETATM   12  F   UNL     1       3.342  -1.755  -0.236  1.00  0.00    -0.187 F 
BRANCH  10  13
HETATM   13  C   UNL     1       3.539   0.591  -0.167  1.00  0.00     0.222 C 
HETATM   14  O   UNL     1       3.367   1.677  -0.704  1.00  0.00    -0.645 OA
BRANCH  13  15
HETATM   15  O   UNL     1       4.570   0.329   0.674  1.00  0.00    -0.772 OA
HETATM   16  H   UNL     1       5.153   1.108   0.793  1.00  0.00     0.167 HD
ENDBRANCH  13  15
ENDBRANCH  10  13
ENDBRANCH   7  10
ENDBRANCH   4   7
ENDBRANCH   3   4
BRANCH   3  17
HETATM   17  C   UNL     1      -1.214  -0.239  -1.021  1.00  0.00     0.387 C 
HETATM   18  F   UNL     1      -1.821   0.167  -2.165  1.00  0.00    -0.192 F 
HETATM   19  F   UNL     1      -0.453  -1.320  -1.355  1.00  0.00    -0.192 F 
BRANCH  17  20
HETATM   20  C   UNL     1      -2.285  -0.725  -0.056  1.00  0.00     0.409 C 
HETATM   21  F   UNL     1      -2.983  -1.715  -0.682  1.00  0.00    -0.189 F 
HETATM   22  F   UNL     1      -1.693  -1.305   1.021  1.00  0.00    -0.189 F 
BRANCH  20  23
HETATM   23  C   UNL     1      -3.279   0.300   0.430  1.00  0.00     0.461 C 
HETATM   24  F   UNL     1      -3.968   0.842  -0.596  1.00  0.00    -0.165 F 
HETATM   25  F   UNL     1      -2.683   1.301   1.109  1.00  0.00    -0.165 F 
HETATM   26  F   UNL     1      -4.173  -0.274   1.267  1.00  0.00    -0.165 F 
ENDBRANCH  20  23
ENDBRANCH  17  20
ENDBRANCH   3  17
TORSDOF 8
